LAMMPS data file via write_data, version 19 Nov 2024, timestep = 100000, units = metal

559 atoms
6 atom types

-13.410179371237684 13.410179371237684 xlo xhi
-13.410179371237684 13.410179371237684 ylo yhi
-26.820358742475367 26.820358742475367 zlo zhi

Masses

1 26.9815
2 51.996
3 55.845
4 58.933
5 58.693
6 63.546

Pair Coeffs # lj/cut

1 0.63 3.8
2 0.15 2.6
3 0.1 2.5
4 0.18 2.7
5 0.2 2.8
6 0.41 2.55

Atoms # atomic

1 6 -11.546155939719462 -11.546137731131573 -23.092311522303206 0 0 0
3 5 -7.697673658805818 -11.546374349974919 -23.092799346496474 0 0 0
14 5 -11.546160276083405 -7.697439478658135 -23.09233162175913 0 0 0
16 6 -7.697582970611052 -7.69729575458897 -23.092600101096682 0 0 0
5 1 -3.84586692822249 -11.549197057074748 -23.098382817443586 0 0 0
18 5 -3.8485371822982817 -7.6972085038051 -23.092648243846085 0 0 0
20 1 -0.0001343244404168331 -7.697404557443133 -23.093218577609978 0 0 0
7 2 6.107567713797835e-06 -11.546166030208624 -23.09231516542802 0 0 0
9 2 3.848718126899028 -11.54615886342467 -23.092312666563043 0 0 0
22 2 3.8487280793299217 -7.69744265780847 -23.09230325501801 0 0 0
11 4 7.697442651605135 -11.546161918540896 -23.092322253089385 0 0 0
13 2 11.546167620817036 -11.546168372568571 -23.092322596365744 0 0 0
24 4 7.69743978270907 -7.697458052854507 -23.092309096830036 0 0 0
26 2 11.546159858143197 -7.697441789977391 -23.092318787166455 0 0 0
27 5 -11.546156023337222 -3.8487225956029683 -23.09232880583255 0 0 0
29 4 -7.697443184220584 -3.848718188972965 -23.09224672809539 0 0 0
40 2 -11.546153722577523 -1.2100515611734863e-07 -23.09231666006552 0 0 0
42 6 -7.697448706703664 -2.212280435287539e-06 -23.092290992360525 0 0 0
31 2 -3.848723285785473 -3.848731902247488 -23.092323190345397 0 0 0
44 1 -3.851516454168099 -0.002870496621515173 -23.09871637700901 0 0 0
33 3 1.9443970877830452e-07 -3.848717916434447 -23.092309744872974 0 0 0
35 2 3.848712857371366 -3.8487202033787025 -23.092314721635482 0 0 0
46 3 6.45619505181827e-05 -6.298137507698698e-05 -23.092436989959765 0 0 0
48 2 3.8487207678451067 -4.222768859918347e-06 -23.092317311363587 0 0 0
37 1 7.697344007845567 -3.848622074275907 -23.09312430050078 0 0 0
39 2 11.546167744577525 -3.848720146423606 -23.092316092674167 0 0 0
52 4 11.546160784099603 -2.709573193371284e-06 -23.092321689271962 0 0 0
53 6 -11.546151067453978 3.8487158575330174 -23.09231907565722 0 0 0
55 5 -7.697441215737999 3.848715060893907 -23.092219950664976 0 0 0
57 6 -3.848874261815432 3.8488733479617654 -23.092592007184344 0 0 0
59 2 9.937617931043974e-05 3.8488244829980136 -23.092518230427657 0 0 0
61 2 3.848722362625944 3.8487235906324546 -23.09230762620939 0 0 0
50 2 7.697441325768958 5.011032161661433e-06 -23.092313647522026 0 0 0
63 2 7.697440183874059 3.848725282474744 -23.092306437573704 0 0 0
65 4 11.546168494258238 3.8487243042229284 -23.092325765336668 0 0 0
66 1 -11.546314913441593 7.696849986862249 -23.092628308335428 0 0 0
68 3 -7.697442193446396 7.6974410456046645 -23.09230847430982 0 0 0
79 1 -11.546204117985196 11.546844973064532 -23.092421336885053 0 0 0
80 2 -7.6974334961105155 11.54616509818234 -23.092313602263083 0 0 0
70 3 -3.8487214384123636 7.697441452640687 -23.09231223171702 0 0 0
81 6 -3.8487199069436624 11.54613458505847 -23.092298299647894 0 0 0
82 6 -3.586626826646011e-06 11.546159628342364 -23.092311313386254 0 0 0
72 2 3.7020988230551666e-07 7.697443511394491 -23.092308001735244 0 0 0
74 4 3.848720539375771 7.697440116350323 -23.09231585807636 0 0 0
83 6 3.848717349817834 11.546156040345105 -23.09231079501462 0 0 0
76 5 7.697439272159075 7.697432320934341 -23.092344346824767 0 0 0
78 3 11.546152841094907 7.697445119042497 -23.092320997674268 0 0 0
84 5 7.697442879642066 11.546172962070612 -23.092349251740778 0 0 0
85 6 11.546141089570524 11.546161119379297 -23.092331507296702 0 0 0
2 5 -9.62202494477567 -9.62159985488258 -19.24401516740214 0 0 0
86 4 -11.546176846329974 -11.546166020870377 -15.394908520674349 0 0 0
88 1 -7.700220952353079 -11.549571339689503 -15.389091217073494 0 0 0
99 5 -11.546162454379271 -7.697444948497278 -15.39492514846308 0 0 0
101 5 -7.697658797605678 -7.69720659405905 -15.394466111014031 0 0 0
4 1 -5.772870128301956 -9.616224622759672 -19.24322851573025 0 0 0
6 2 -1.9243531357659176 -9.621801088611246 -19.243172110293255 0 0 0
90 2 -3.8486111734226895 -11.546259700243702 -15.394665856026593 0 0 0
92 3 -2.4734278447624547e-06 -11.546148766063917 -15.394891947797992 0 0 0
103 3 -3.848654754584837 -7.697380671122192 -15.394751872031819 0 0 0
105 4 -2.460211902644005e-06 -7.697441318116789 -15.394845519376688 0 0 0
8 6 1.9245109658244601 -9.621937216379584 -19.24328762621937 0 0 0
10 2 5.773077267226343 -9.62179195646766 -19.243582511164426 0 0 0
94 2 3.8487199760356408 -11.546150994516337 -15.394892890215342 0 0 0
107 6 3.8487178682722973 -7.697444093403332 -15.39489421602763 0 0 0
12 2 9.62179674355591 -9.621793592790192 -19.243588956742578 0 0 0
96 2 7.697443491263622 -11.546153509924604 -15.394883957662252 0 0 0
98 4 11.546166447873416 -11.546161759188871 -15.394880232671976 0 0 0
109 6 7.697434376844702 -7.6974429625499985 -15.394881982161776 0 0 0
111 3 11.546156499875243 -7.697443317637499 -15.394877160878565 0 0 0
15 3 -9.62179227094224 -5.773083617990702 -19.24359856024741 0 0 0
28 6 -9.621780858259148 -1.9243506001808868 -19.243582236612824 0 0 0
112 3 -11.546152557287805 -3.8487216100362573 -15.394880244260857 0 0 0
114 2 -7.6974426919502985 -3.8487145350192282 -15.39489940524992 0 0 0
125 2 -11.546149482848513 -1.81397543919104e-06 -15.394880542496068 0 0 0
127 6 -7.6974355846312115 -6.136132117973148e-06 -15.394911312039596 0 0 0
17 4 -5.773082708851679 -5.773067058529922 -19.243591727386296 0 0 0
19 3 -1.9244244784212725 -5.773021231922501 -19.243466987663613 0 0 0
30 2 -5.773190796561514 -1.9244571585552528 -19.243376631978403 0 0 0
32 3 -1.9242991743442364 -1.9244218495097147 -19.243468948715314 0 0 0
116 4 -3.8487130042256936 -3.8487138612653187 -15.394909439882182 0 0 0
118 2 -4.178265344378929e-06 -3.8487222608100655 -15.39489182817591 0 0 0
129 6 -3.848876154660113 -0.0001506842825875765 -15.394562319162683 0 0 0
21 4 1.9245163165169927 -5.772930339605388 -19.243287086826218 0 0 0
23 2 5.77297627662106 -5.773190840296739 -19.24337405095484 0 0 0
34 6 1.924356556856635 -1.924362886588332 -19.24359001960722 0 0 0
36 3 5.773017823824324 -1.9242986825385895 -19.243474113012894 0 0 0
120 2 3.848718490355834 -3.8487191352430123 -15.394882309870113 0 0 0
131 2 0.00010309028939836651 -0.00010743673969848544 -15.394672452414225 0 0 0
133 4 3.848717271351921 -4.3441836048430105e-06 -15.394916887015587 0 0 0
25 4 9.621943924868964 -5.773237755053646 -19.243282907458838 0 0 0
38 2 9.621899887065231 -1.9242553571572625 -19.243384302581127 0 0 0
122 3 7.697441657353531 -3.848723598535811 -15.394882439234978 0 0 0
124 5 11.54617387190381 -3.8487171694912607 -15.394896051058007 0 0 0
41 3 -9.621796703556425 1.9243563619964128 -19.243600779116548 0 0 0
54 2 -9.621694338263143 5.772980620157751 -19.243379488865774 0 0 0
138 2 -11.54615211282078 3.8487247992774325 -15.394888886151872 0 0 0
140 2 -7.697441004883255 3.8487224610159014 -15.394881131309674 0 0 0
43 2 -5.773188859110366 1.9244584482702134 -19.243382570576458 0 0 0
45 1 -1.9215140776141109 1.9270391729518703 -19.238212342964296 0 0 0
56 2 -5.773182799064188 5.77297709201183 -19.243800473458663 0 0 0
58 2 -1.9242625188983453 5.772983942725583 -19.24380817109659 0 0 0
142 2 -3.8488275276965283 3.8488122054414102 -15.394685693546515 0 0 0
47 3 1.924362045639766 1.9243574465915092 -19.24359868756141 0 0 0
49 2 5.773083647071784 1.924363433788372 -19.243594142186208 0 0 0
60 3 1.9243615311351707 5.773082698771665 -19.243594691848447 0 0 0
62 6 5.773081529555691 5.773084177851681 -19.243576117780144 0 0 0
144 5 0.00020953685827329593 3.8489222812748682 -15.394480956250543 0 0 0
146 2 3.8487237521716704 3.8487230176400846 -15.3948800030685 0 0 0
51 4 9.621794934240624 1.9243584204135402 -19.243581220362813 0 0 0
64 2 9.621795284904243 5.77308115509396 -19.243594070404136 0 0 0
135 2 7.697441637849321 2.28402740098943e-06 -15.394878777452384 0 0 0
137 2 11.54615510868127 1.8917006592289454e-06 -15.394896213996823 0 0 0
148 4 7.697440474263642 3.8487246787354845 -15.394876074818658 0 0 0
150 2 11.54615309967532 3.8487197045331083 -15.394878781686273 0 0 0
67 3 -9.621672493961134 9.621798391999524 -19.243346292701382 0 0 0
151 2 -11.546150912783396 7.697445006417455 -15.39486872836489 0 0 0
153 6 -7.697454007493177 7.697438667299073 -15.394878347741958 0 0 0
164 4 -11.546156936742156 11.546164077484557 -15.394885494714357 0 0 0
165 2 -7.697442549582237 11.54613341109856 -15.394888877018955 0 0 0
69 2 -5.7731840180991485 9.621905647664876 -19.243802853314342 0 0 0
71 4 -1.9242120804184726 9.621954383853351 -19.24390405765147 0 0 0
155 1 -3.8488777667449465 7.697575925102397 -15.394870090641176 0 0 0
166 6 -3.84872684724267 11.546161087745274 -15.394903973831921 0 0 0
167 2 -3.29668877974143e-06 11.546152284586034 -15.39489176981968 0 0 0
73 2 1.9243613640188375 9.621803295242168 -19.243597506876995 0 0 0
75 5 5.773076453073989 9.6217966603667 -19.243616716317526 0 0 0
157 2 9.6344096718326e-06 7.697443791426773 -15.394886772307064 0 0 0
159 4 3.8485711542704006 7.69728737120038 -15.395217885784042 0 0 0
168 2 3.848615176723383 11.546258311207575 -15.39509253764724 0 0 0
77 5 9.621803184723936 9.621802128210161 -19.243571812859646 0 0 0
161 3 7.697504021115973 7.697377524699805 -15.395004281109372 0 0 0
163 5 11.546170173962237 7.697439294645845 -15.394873433318654 0 0 0
169 2 7.697549020926532 11.546262648772059 -15.39508487712451 0 0 0
170 3 11.54616266835041 11.546158509752457 -15.394881467822547 0 0 0
87 2 -9.621692085139008 -9.621693107566756 -11.546370901848514 0 0 0
171 1 -11.54638030078032 -11.545966736991886 -7.697457204171627 0 0 0
173 5 -7.697423772564535 -11.546160833877634 -7.697392368138516 0 0 0
184 1 -11.546542968382775 -7.696804679185071 -7.697215627473511 0 0 0
186 3 -7.697502538808735 -7.697508272945339 -7.697570263451066 0 0 0
89 4 -5.772920353574229 -9.621635597073482 -11.545829318220294 0 0 0
91 6 -1.9243715880662222 -9.62178148498236 -11.546153151217219 0 0 0
175 2 -3.848720362962842 -11.546145436531377 -7.697444396459776 0 0 0
177 2 -5.773589636604015e-06 -11.546146432297572 -7.697437376153847 0 0 0
188 6 -3.8485565735136085 -7.697594084122839 -7.6977382604358375 0 0 0
190 2 -1.1768932676403665e-05 -7.697447710756834 -7.697461405315838 0 0 0
93 2 1.9243607072847269 -9.621792952439442 -11.546170603100286 0 0 0
95 4 5.773080971233201 -9.621783023606515 -11.546166126916127 0 0 0
179 3 3.848724298886184 -11.546154352042151 -7.697440292040536 0 0 0
192 2 3.848617206694085 -7.697543281451292 -7.697649057793459 0 0 0
97 2 9.621797502959124 -9.621785011312975 -11.546152908227725 0 0 0
181 5 7.697444145625658 -11.546162528333156 -7.697488259758185 0 0 0
183 3 11.546152284480437 -11.546159912160126 -7.697433603895661 0 0 0
194 6 7.697444039353774 -7.697742438789049 -7.698023756357664 0 0 0
196 6 11.54627092251989 -7.697593371323885 -7.697733681584975 0 0 0
100 4 -9.62179263847246 -5.7730763538260055 -11.546750223948257 0 0 0
113 3 -9.62192255669886 -1.9243613043041083 -11.546416214824683 0 0 0
197 6 -11.546153471561462 -3.848710282549737 -7.697432175983671 0 0 0
199 1 -7.701075608604163 -3.8464409507830535 -7.702716622934947 0 0 0
210 2 -11.546141999472686 -6.651272862256974e-06 -7.697444340845344 0 0 0
102 5 -5.773074548475968 -5.773501483705861 -11.547029153778805 0 0 0
104 6 -1.9243705768874708 -5.773388617363117 -11.54673438237828 0 0 0
115 4 -5.772931711247259 -1.924208104174733 -11.547079950949698 0 0 0
117 3 -1.9243641924626171 -1.924234111548948 -11.546416399690932 0 0 0
201 1 -3.8457647992163544 -3.845756566427152 -7.702761915155428 0 0 0
214 4 -3.8488593605266637 -0.00014108931538103775 -7.697753013103849 0 0 0
106 2 1.9244663047197754 -5.773188387420133 -11.546369638952077 0 0 0
108 4 5.773087298568955 -5.773087663085009 -11.546190346357735 0 0 0
119 3 1.924359849928516 -1.9243616699752693 -11.54641444928746 0 0 0
121 3 5.773146942094636 -1.9244251674397912 -11.546278405343827 0 0 0
203 1 0.0005810908938830295 -3.848593370177973 -7.697699650915631 0 0 0
205 2 3.8486268230506315 -3.8486217321673504 -7.697646068308359 0 0 0
216 3 5.892625400072404e-05 -6.220636003284596e-05 -7.697568694911169 0 0 0
218 1 3.84871080635296 -7.815056909166174e-06 -7.6975872390317654 0 0 0
110 5 9.621785687330542 -5.773090559284808 -11.546197890278878 0 0 0
123 5 9.621578619980253 -1.924565678263038 -11.546564664366818 0 0 0
207 2 7.697436713677069 -3.8485104056605035 -7.6978428500907015 0 0 0
209 2 11.546267318223228 -3.848628166889352 -7.697643094497693 0 0 0
126 2 -9.621898624471637 1.9244654492809374 -11.546369577536936 0 0 0
139 6 -9.621787481519075 5.773084119351294 -11.54616429599504 0 0 0
212 1 -7.6973715757257555 0.0005691415716206905 -7.697536625021858 0 0 0
223 2 -11.546154391311305 3.848721283468544 -7.697442812917934 0 0 0
225 2 -7.697439417186375 3.8487330133242477 -7.697460533522101 0 0 0
128 2 -5.772975582888717 1.924460236291532 -11.546383348339614 0 0 0
130 3 -1.924364160442229 1.9243593286266254 -11.546166434132568 0 0 0
141 2 -5.773191557616835 5.772975523801497 -11.545958634262625 0 0 0
143 5 -1.92415045508079 5.772868380753833 -11.545741742003774 0 0 0
227 2 -3.8488311965923376 3.8488257107029273 -7.697645120332886 0 0 0
132 2 1.9242574920903195 1.9244678369393728 -11.546358935488266 0 0 0
134 4 5.773232586524033 1.9245118439295545 -11.546464228909548 0 0 0
145 5 1.9241550711607687 5.772875189734462 -11.54656162974806 0 0 0
147 3 5.773140061168819 5.773016882050966 -11.546289233516328 0 0 0
229 2 0.00010876992018360454 3.848823253784177 -7.6976456403250815 0 0 0
231 6 3.848724383278002 3.8487207599754374 -7.697440096266622 0 0 0
136 6 9.62164670062028 1.9245024192574753 -11.546451132681899 0 0 0
149 2 9.621796894140394 5.773083119715201 -11.546161196224755 0 0 0
220 2 7.697443415200096 3.6942904859671444e-06 -7.697428461768382 0 0 0
222 1 11.546742862733849 2.891014522354851e-05 -7.697188249028095 0 0 0
233 5 7.697440062149516 3.848719086296283 -7.697432104030934 0 0 0
235 3 11.546149689453108 3.8487183348240936 -7.697442560292629 0 0 0
152 3 -9.621735119170365 9.621733316954364 -11.54629347653347 0 0 0
236 2 -11.546151941548418 7.697435249468887 -7.697442639565235 0 0 0
238 2 -7.697442407272826 7.697437334105812 -7.697465337020308 0 0 0
249 1 -11.546236891095493 11.54525388079251 -7.697411284904625 0 0 0
250 3 -7.697444420669641 11.546158261173849 -7.697445499300674 0 0 0
154 3 -5.773146088506878 9.621861686932851 -11.546045345661286 0 0 0
156 3 -1.9242981779047117 9.621861428513954 -11.54604328814963 0 0 0
240 5 -3.8487292271370332 7.697434930150935 -7.6974499315372675 0 0 0
242 2 -9.300824487468162e-06 7.697440827821419 -7.69743752233547 0 0 0
251 3 -3.8487223308099487 11.546153334229293 -7.697448798296861 0 0 0
158 2 1.9242505598097743 9.62189926513794 -11.546368825272195 0 0 0
160 1 5.775959001919508 9.624671612262274 -11.551863780514738 0 0 0
244 1 3.846123688349534 7.694660896103164 -7.691636952651567 0 0 0
252 3 2.8040027721942806e-06 11.546153474107184 -7.697444731527 0 0 0
253 2 3.848620976224259 11.546263391580654 -7.6972320620160914 0 0 0
162 6 9.62179580919298 9.621795599028742 -11.546164962986145 0 0 0
246 4 7.697607970929317 7.697291735646102 -7.697138412148025 0 0 0
248 2 11.546153127016998 7.697448867321308 -7.697440991747612 0 0 0
254 2 7.69755019187072 11.546257285578582 -7.697225828466436 0 0 0
255 5 11.546112134969947 11.546164776691034 -7.6974908076016995 0 0 0
172 2 -9.621592118791082 -9.621795691098002 -3.848308935931769 0 0 0
258 3 -7.697443897953808 -11.546154922064344 -8.10381604665622e-06 0 0 0
269 3 -11.546154097350502 -7.6974418525013695 -4.113166660602019e-06 0 0 0
174 3 -5.773077686044849 -9.62179515707942 -3.8487336386303888 0 0 0
176 6 -1.9245109857326703 -9.621927496143375 -3.8490382769070557 0 0 0
260 5 -3.8487246663183914 -11.54616085753445 -1.8894195438434735e-05 0 0 0
262 2 -1.7089422108540475e-06 -11.546160570000056 -2.9707118116562015e-06 0 0 0
178 2 1.9244647140198463 -9.62189686589048 -3.848929085701073 0 0 0
180 2 5.772979687237376 -9.621691221784788 -3.848927917627922 0 0 0
277 2 3.8485237271205346 -7.697650539958212 -1.9793860595029855e-06 0 0 0
182 4 9.621955762385122 -9.621652829296085 -3.849023148885909 0 0 0
268 6 11.546167699913541 -11.546135004816293 -9.877325759077848e-06 0 0 0
185 3 -9.621801114304413 -5.773080341517233 -3.8484834948890487 0 0 0
198 2 -9.622005213344142 -1.9243582917033084 -3.8483147158657687 0 0 0
282 5 -11.54615602658785 -3.848722618659357 -1.676682868634316e-05 0 0 0
187 1 -5.7729087061538475 -5.778767616014402 -3.837753098201386 0 0 0
189 2 -1.9244616728755641 -5.773190172567384 -3.8485274971283694 0 0 0
200 2 -5.772975165499029 -1.9242499037085512 -3.8481027167868547 0 0 0
202 2 -1.9243617006865765 -1.924162260018921 -3.8483054764339073 0 0 0
191 4 1.9246521623458843 -5.773080196065411 -3.8487193680494265 0 0 0
193 1 5.772404263676931 -5.772944967676747 -3.849897085313369 0 0 0
204 4 1.9243630363184412 -1.9243631717772853 -3.848114148057487 0 0 0
206 6 5.773233383231675 -1.9245100657329015 -3.8484081265544674 0 0 0
290 2 3.8485158054641158 -3.848509374192904 -5.069646235256187e-06 0 0 0
195 1 9.622466640118963 -5.7729406139486406 -3.8484364275638754 0 0 0
208 2 9.621689825339962 -1.9244531686445967 -3.84850358916475 0 0 0
305 2 7.697341091545551 -0.00010600104710611902 -0.00021823431234935242 0 0 0
307 6 11.546289355864245 -0.00014905702259149223 -0.0002995398327882981 0 0 0
211 5 -9.62221423099973 1.9243605169755682 -3.8487200172313436 0 0 0
224 4 -9.622098662027877 5.773079834269174 -3.8493252250533345 0 0 0
213 3 -5.772959328026092 1.9243610738776873 -3.848720757457844 0 0 0
215 1 -1.924325576234617 1.9244130208216017 -3.8486243208773168 0 0 0
226 2 -5.772977890719195 5.772975370154226 -3.8493401787842245 0 0 0
228 2 -1.9242569084861003 5.77298339515192 -3.8489419161092115 0 0 0
312 3 -3.8488467124492036 3.848723117242711 -6.919509623060094e-07 0 0 0
217 2 1.9242638567278458 1.924466536711547 -3.848521153126473 0 0 0
219 3 5.773146705993783 1.9244218525715695 -3.848597214742856 0 0 0
230 2 1.9242543249565909 5.772973260968049 -3.8485181013143617 0 0 0
232 2 5.773182899040135 5.7729790397218945 -3.848506372264538 0 0 0
314 2 0.00020698592215495637 3.8487238766695366 -2.149644693361097e-06 0 0 0
316 3 3.8487210194976793 3.8487209858759694 -1.1178864678385025e-05 0 0 0
221 6 9.621504574817207 1.9243529959377845 -3.8487236239739175 0 0 0
234 2 9.621694785204278 5.773184057254797 -3.848919220270382 0 0 0
318 2 7.697337230689213 3.8488220458928577 -0.0002176001224292179 0 0 0
320 1 11.549439643362993 3.8515913039707907 -0.0056158606082625795 0 0 0
237 3 -9.621798636977287 9.621798061849953 -3.8487180256366216 0 0 0
323 1 -7.6980893806335695 7.698135125590122 -0.0008641596429512788 0 0 0
334 2 -11.546139610778415 11.54615990793158 -2.848789495857318e-06 0 0 0
239 5 -5.773090559542216 9.622217514263651 -3.849558304280844 0 0 0
241 5 -1.9241461719751314 9.622007215188804 -3.849138078434205 0 0 0
325 1 -3.851027454066319 7.700030574077415 -0.005018767795274215 0 0 0
243 4 1.924206826402333 9.621945091462782 -3.84842681631541 0 0 0
245 3 5.773145293885973 9.621860419989728 -3.848598191422923 0 0 0
327 4 0.00016956126594713794 7.697587025491677 -0.0002974126601777982 0 0 0
329 2 3.8486152810072216 7.697341497323004 -0.00020211962558747132 0 0 0
338 5 3.848521085491713 11.546370771794768 -0.00042078880173335165 0 0 0
247 2 9.62169067861113 9.621691621772866 -3.8489284158570634 0 0 0
331 2 7.697552284598045 7.697340640655961 -0.00021396770328863113 0 0 0
333 2 11.546154550557224 7.697442649742227 -1.0422286358391375e-05 0 0 0
339 4 7.69757915289072 11.546274931917724 -0.0003000925665261889 0 0 0
256 4 -11.546172401235879 -11.546171240998808 1.669935298664882e-05 0 0 0
271 5 -7.697649082615271 -7.697641477863468 0.00040491096069317223 0 0 0
257 5 -9.621801010513698 -9.621798568640648 3.8487021642920745 0 0 0
273 3 -3.848658971146879 -7.697504376414226 0.0001151128693201997 0 0 0
259 3 -5.773081739874343 -9.621797581832098 3.8487179340034245 0 0 0
261 5 -1.9245571412395073 -9.622000889528083 3.8491377441607106 0 0 0
264 3 3.8487204902254906 -11.546153733955299 3.5062831607035605e-06 0 0 0
275 1 5.183301968259002e-05 -7.6972783165580125 4.188815683292546e-05 0 0 0
263 2 1.9244639606171479 -9.621899397500776 3.8489300421635484 0 0 0
265 2 5.772976698490316 -9.62169450686027 3.8489257268595267 0 0 0
266 1 7.697346460409753 -11.54664759551126 1.068122887915024e-06 0 0 0
279 4 7.697589924299441 -7.697880970656796 0.00029546820542947216 0 0 0
281 3 11.546215405248473 -7.697507757761383 0.0001180482670974925 0 0 0
267 4 9.621949739035609 -9.62164477501593 3.849001771028931 0 0 0
284 5 -7.6976504600204345 -3.848513164988818 0.0004016829473876271 0 0 0
297 3 -7.697440836716408 -6.806560532979233e-06 2.8771629523305364e-06 0 0 0
270 2 -9.621902532120778 -5.773187435032055 3.8485121098309243 0 0 0
283 2 -9.621900452087889 -1.9242519757529823 3.8485159016880353 0 0 0
286 2 -3.848618542192847 -3.8486178257728003 0.00021501547415070377 0 0 0
288 2 -2.843659341777993e-06 -3.8487154500003005 1.1170168050966822e-05 0 0 0
299 2 -3.848828207568584 -0.00010689172922617729 0.00019795831201108172 0 0 0
272 2 -5.772972129884087 -5.773180296764959 3.8485226827621766 0 0 0
274 3 -1.924423640156654 -5.773019405558105 3.848838125362743 0 0 0
285 2 -5.772976256796693 -1.9242555822794092 3.848510069493326 0 0 0
287 3 -1.9243605989619414 -1.9243600391265119 3.848723572520729 0 0 0
301 2 0.00010438906938503578 -0.00010549688719230232 0.0002099916102871191 0 0 0
303 2 3.8487273850443575 -6.070706245253632e-06 1.5002783484874271e-05 0 0 0
276 2 1.9244602408296974 -5.7729779231041265 3.848931861167827 0 0 0
278 1 5.772997187796674 -5.772981633598388 3.850148161054374 0 0 0
289 3 1.9243644833996036 -1.924362025259093 3.848724763017895 0 0 0
291 6 5.77309227149574 -1.9243544289398002 3.8487034432115195 0 0 0
292 3 7.6975010894386084 -3.8485302363240717 0.00012532126555342415 0 0 0
294 2 11.546259691699104 -3.8486100692487266 0.00020725811454980203 0 0 0
280 2 9.621798820785186 -5.77307646456324 3.8487280370036494 0 0 0
293 4 9.621638018239471 -1.9245254595402237 3.848385974527112 0 0 0
295 2 -11.546163667275046 1.0672107464415603e-07 1.265133501959781e-06 0 0 0
308 2 -11.546142096050634 3.848726002899424 1.2341445398078577e-05 0 0 0
310 1 -7.697227859831962 3.848117469713495 0.00021766780095333615 0 0 0
296 3 -9.621861478277085 1.924301311203612 3.8488466486392596 0 0 0
309 6 -9.622239063060443 5.772935280006616 3.8490180424802034 0 0 0
298 4 -5.772925329959718 1.924213043181183 3.8490234627196074 0 0 0
300 3 -1.924361625527773 1.9243593340864145 3.8487338878441726 0 0 0
311 3 -5.772960484223497 5.772956111877521 3.848972771333891 0 0 0
313 1 -1.9216755164836705 5.770183978705473 3.854482843115097 0 0 0
302 3 1.9243579928918528 1.9243594628186624 3.848724386863445 0 0 0
304 2 5.7730774828958555 1.9243540399098116 3.84873138056863 0 0 0
315 3 1.9243636361750855 5.773084123870449 3.8487205315726136 0 0 0
317 5 5.773080447590152 5.773060543627627 3.8487124381703914 0 0 0
306 1 9.616011972191481 1.9241543715918876 3.848425249580483 0 0 0
319 2 9.621586915650346 5.773092951407653 3.8487185809420765 0 0 0
321 2 -11.546161672216282 7.697442835766376 1.4256837857828941e-05 0 0 0
335 2 -7.697446766454417 11.546157939304416 8.80298677685687e-06 0 0 0
322 3 -9.621863076850651 9.621858312353465 3.8485985854991327 0 0 0
336 4 -3.8487242611753185 11.546174214473966 1.5654844748524965e-05 0 0 0
324 3 -5.773019573057992 9.621983552649942 3.8488441716330257 0 0 0
326 2 -1.924257705034524 9.621905465915907 3.848928664789401 0 0 0
337 2 7.610285734926947e-07 11.546153774676592 8.259055874759724e-06 0 0 0
328 2 1.9243519316902677 9.621794174514344 3.848724152405108 0 0 0
330 1 5.7730658611041346 9.621574479415822 3.849027567272792 0 0 0
340 1 11.5463644820977 11.546351240909045 5.758756961071754e-05 0 0 0
332 2 9.62159487266406 9.621798764489347 3.848727490178728 0 0 0
341 5 -11.546168252739516 -11.546117056844203 7.697449204412937 0 0 0
343 2 -7.697444790152019 -11.546157032041952 7.697447739617761 0 0 0
354 2 -11.546154382822213 -7.697438721055898 7.697449786459824 0 0 0
356 5 -7.697433088758525 -7.697459914083618 7.697464194418817 0 0 0
342 3 -9.6217969100316 -9.621798633148849 11.546168468555042 0 0 0
345 3 -3.848719780683048 -11.5461534529514 7.69744176889461 0 0 0
358 5 -3.8489410688255514 -7.697643303154007 7.697027727460931 0 0 0
344 3 -5.773082827725292 -9.621796793119923 11.546175331547634 0 0 0
346 3 -1.9243580831577383 -9.6218013416762 11.546162002493634 0 0 0
347 6 6.460327993451642e-06 -11.546146386207111 7.697440412841299 0 0 0
349 4 3.8487242964220716 -11.546158219436254 7.697454686186791 0 0 0
360 3 6.230739344204039e-05 -7.697504477180138 7.697324970368317 0 0 0
362 3 3.8486610330418767 -7.6975076441412655 7.697571522970616 0 0 0
348 3 1.9243653163941534 -9.621796550545039 11.546167732635869 0 0 0
350 6 5.773074725157889 -9.621785522410143 11.54618193529004 0 0 0
351 5 7.697433894906203 -11.546170828586 7.697489726246641 0 0 0
353 3 11.54616015889732 -11.54616228465133 7.697433341442089 0 0 0
364 2 7.6975447162082755 -7.697548132846099 7.69764672838674 0 0 0
366 5 11.54616309940611 -7.697434358352285 7.697440204331688 0 0 0
352 4 9.621788531786008 -9.621794568384942 11.546166680140143 0 0 0
367 4 -11.54617362021336 -3.8487180620408203 7.697442563603371 0 0 0
369 1 -7.697421225659015 -3.8487875082459517 7.697658647024323 0 0 0
380 2 -11.546135416364022 -3.4791321326110847e-06 7.697442374006297 0 0 0
355 3 -9.621858922676994 -5.7731426992588535 11.546292889710674 0 0 0
368 2 -9.622002455339365 -1.9243598748676973 11.546166221616058 0 0 0
371 2 -3.8488182068112042 -3.8486155662949972 7.697240687999805 0 0 0
357 3 -5.773021048551611 -5.773141303321583 11.54629997559486 0 0 0
359 1 -1.9272461700481642 -5.7758149240137175 11.540447227903673 0 0 0
370 2 -5.772976084659272 -1.9244658146161573 11.545966156440276 0 0 0
372 3 -1.924358810912958 -1.9243533232599592 11.545922273485 0 0 0
373 2 0.00010252765559748411 -3.848612785236501 7.697221681758339 0 0 0
375 3 3.8485977725509404 -3.848716837904874 7.6974455180999435 0 0 0
361 5 1.9246085294143604 -5.773280192484594 11.545687419734431 0 0 0
363 4 5.773074580293487 -5.773094052155456 11.546206530791164 0 0 0
374 3 1.92435905417363 -1.9243607757331151 11.54592235069767 0 0 0
376 1 5.775248365136269 -1.9272584544725042 11.538954302377388 0 0 0
377 2 7.6975474035701 -3.8488225007425996 7.697228931434335 0 0 0
379 2 11.546257595831568 -3.848831382972424 7.697233735684581 0 0 0
392 1 11.552397243170555 -7.301791039182604e-05 7.697303754451614 0 0 0
365 3 9.621793187519875 -5.773079755052131 11.546162124752822 0 0 0
378 1 9.61951742886144 -1.927258778181459 11.55158368850702 0 0 0
382 4 -7.697437529571049 1.2489576185714668e-05 7.697413858067126 0 0 0
393 2 -11.54615887572599 3.84872651690276 7.697422379278446 0 0 0
395 2 -7.697440750246189 3.848717194732453 7.6974467910671045 0 0 0
381 5 -9.621998274092213 1.92458022451377 11.54574349415783 0 0 0
394 4 -9.621943213953292 5.772924171312431 11.54645056757457 0 0 0
384 2 -3.8487191804534415 2.0127990172369437e-06 7.697446174593129 0 0 0
386 6 -3.3041394189581297e-06 2.0343733613259474e-06 7.6974800711636995 0 0 0
397 2 -3.848825309691687 3.8486137095483866 7.697641788943589 0 0 0
383 2 -5.773182747812851 1.9244674639417063 11.545549397964745 0 0 0
385 6 -1.9240617372000326 1.9243588122348037 11.545569086522779 0 0 0
396 5 -5.773078076247385 5.773080683612234 11.546158987109305 0 0 0
398 2 -1.9242612490558688 5.773183210059036 11.545978119754476 0 0 0
388 2 3.848619818895605 0.00010515316053627544 7.697234190564263 0 0 0
399 2 0.000102793606570728 3.848610075712193 7.697671381046323 0 0 0
401 2 3.848723173515106 3.848715359891008 7.697451774106927 0 0 0
387 3 1.924232910135574 1.9243566278939959 11.545919073713176 0 0 0
389 6 5.773387950291275 1.9243529814103457 11.545589102228536 0 0 0
400 3 1.924233804189246 5.7730798352925365 11.54591999070713 0 0 0
402 3 5.7732122717901735 5.77308418521846 11.545916961831718 0 0 0
390 3 7.697373091633628 6.220823575198153e-05 7.697326344367841 0 0 0
403 5 7.697235792913281 3.8489324106003497 7.697878870512074 0 0 0
405 5 11.546371521313601 3.848934027658059 7.697894735669731 0 0 0
391 5 9.621576856084046 1.9245811307802878 11.546638586797325 0 0 0
404 6 9.621640732045064 5.772940260490605 11.546472850573483 0 0 0
406 2 -11.546141127034995 7.697432112338886 7.697428769641366 0 0 0
408 1 -7.697296564057457 7.6975611496040255 7.697971197377928 0 0 0
419 1 -11.546435932238143 11.546365101377761 7.697124958503839 0 0 0
420 2 -7.697435805821293 11.546159529490216 7.697431131246066 0 0 0
407 5 -9.621793465768217 9.621802804867924 11.546987420983601 0 0 0
410 3 -3.84878344034656 7.69750221815646 7.6975711718532445 0 0 0
421 3 -3.8487226880619687 11.546150822705114 7.697437925147451 0 0 0
409 2 -5.772976859362461 9.621895776961514 11.546375006588068 0 0 0
411 2 -1.9243638710040454 9.621790413109272 11.546162555965612 0 0 0
412 2 0.00010517813944765919 7.697545675614775 7.697650595589334 0 0 0
414 3 3.8486589933720747 7.697381103678138 7.6975725688471535 0 0 0
422 2 4.005471780033076e-06 11.546156038334372 7.6974442424630745 0 0 0