LAMMPS data file via write_data, version 19 Nov 2024, timestep = 100000, units = metal

559 atoms
8 atom types

-19.578606656492184 19.578606656492184 xlo xhi
-19.578606656492184 19.578606656492184 ylo yhi
-39.15721331298437 39.15721331298437 zlo zhi

Masses

1 26.9815
2 50.9415
3 51.996
4 55.845
5 58.933
6 58.693
7 63.546
8 95.95

Pair Coeffs # lj/cut

1 0.4 3.6
2 0.63 3.8
3 0.15 2.6
4 0.1 2.5
5 0.18 2.7
6 0.2 2.8
7 0.41 2.55
8 0.8 3.8

Atoms # atomic

1 5 -18.09036135529467 -18.090468620916923 -36.173132002422406 0 0 0
3 3 -12.060420428732858 -18.090515592532423 -36.18088360808423 0 0 0
5 3 -6.030209052568356 -18.08485161316483 -36.17541614263233 0 0 0
7 3 -3.714936070764452e-06 -18.09043571714159 -36.18102581888737 0 0 0
9 3 6.030215763857523 -18.090353242294633 -36.169698617611346 0 0 0
11 3 12.06041797594603 -18.090491360575637 -36.16970169256085 0 0 0
13 3 18.090353073673896 -18.090444121297505 -36.18088326322717 0 0 0
14 1 -18.05835755162676 -12.06042478468189 -36.175386813322 0 0 0
16 8 -12.060420367140642 -12.060431699039963 -36.06784146910657 0 0 0
18 3 -6.0302133477634055 -12.060426136374925 -36.17538887207818 0 0 0
20 5 -4.214633065657836e-06 -12.060419498937666 -36.18068824358555 0 0 0
22 3 6.030213973328493 -12.060425348426937 -36.181022839758 0 0 0
24 5 12.060424223004524 -12.060420855360434 -36.18044190476103 0 0 0
26 1 18.058375351055318 -12.060419593549211 -36.17538411806089 0 0 0
27 4 -18.0905143027722 -6.030213149263661 -36.18102768066007 0 0 0
40 2 -18.08347577193193 -1.116319129579324e-06 -36.07803824639611 0 0 0
29 7 -12.060426600784758 -6.0302167144321785 -36.180122716918945 0 0 0
31 4 -6.030210763513136 -6.0302088219141545 -36.18091038766737 0 0 0
44 6 -6.030217192839558 -2.9310652536196358e-06 -36.17049082625982 0 0 0
33 8 4.407788559035453e-06 -6.030208412423935 -36.160324610479435 0 0 0
35 4 6.0302118759104495 -6.030208314573347 -36.18102260917249 0 0 0
37 1 12.060425592545684 -6.030201522266102 -36.116753267674085 0 0 0
50 1 12.06042265750358 -2.0863246881219766e-06 -36.170491577499064 0 0 0
39 3 18.09051108510235 -6.030211969374456 -36.180481819372396 0 0 0
52 5 18.0835260891983 -2.900312118470083e-06 -36.18081184440946 0 0 0
53 6 -18.09007958485404 6.030208368412072 -36.18015901874335 0 0 0
42 1 -12.0604296117031 7.409549382941805e-07 -36.17049861567637 0 0 0
55 7 -12.06042302756005 6.030206132627679 -36.164570613365115 0 0 0
57 4 -6.030209954948196 6.0302116721184085 -36.18091374764763 0 0 0
46 7 6.854436954029097e-06 1.2989386455330987e-06 -36.180684601897816 0 0 0
48 4 6.030210489935126 1.7010495199087927e-06 -36.18101239570424 0 0 0
59 3 7.579085430364785e-06 6.030213350713542 -36.18067159289285 0 0 0
61 6 6.03020561671687 6.030211003857108 -36.170482840375534 0 0 0
63 2 12.060419511799456 6.030205958925247 -36.02310067044611 0 0 0
65 5 18.090079071808503 6.030211561005537 -36.18092617802107 0 0 0
66 1 -18.085068436774982 12.060422871135756 -36.17501990668707 0 0 0
68 3 -12.06042768577216 12.060424573688461 -36.18100982617721 0 0 0
70 5 -6.0302072013262915 12.060423449067216 -36.18090694293891 0 0 0
72 4 3.017806605498663e-06 12.06041856579818 -36.18100641952778 0 0 0
74 4 6.0302056395058585 12.060419085356898 -36.181014046690606 0 0 0
76 3 12.060426426277601 12.060420103038407 -36.1808678268432 0 0 0
78 6 18.08525566055212 12.06042472968835 -36.17051185933384 0 0 0
79 4 -18.090519847696818 18.090461833511313 -36.18103320471108 0 0 0
80 4 -12.060422121937082 18.09051437576639 -36.1809253038814 0 0 0
81 8 -6.0302064306576675 18.0844514657133 -36.168895161734774 0 0 0
82 3 -1.0629603544032307e-06 18.090438068563017 -36.17540010003515 0 0 0
83 5 6.030209470296494 18.09033125660443 -36.180882782388544 0 0 0
84 3 12.060423938333383 18.090458088829706 -36.175389275639404 0 0 0
85 3 18.09052298977214 18.090444736701627 -36.18050403024711 0 0 0
2 5 -15.075524908149433 -15.075515966396202 -30.15105341185228 0 0 0
4 5 -9.045321374379883 -15.075515125294663 -30.151047552455246 0 0 0
6 1 -3.015113594490856 -15.075525412376036 -30.15105678145271 0 0 0
8 4 3.0151050171814298 -15.075527020639637 -30.151055844382007 0 0 0
10 1 9.045322881802122 -15.075532249290527 -30.151066923227887 0 0 0
12 3 15.075526430061657 -15.075526779373533 -30.151055495172635 0 0 0
15 8 -15.075532267980464 -9.045303948033947 -30.151057281735845 0 0 0
17 4 -9.045322715552217 -9.045321629159837 -30.151047884297178 0 0 0
19 3 -3.0151056243532786 -9.045314519728699 -30.15105302559006 0 0 0
21 5 3.0150987261094 -9.045310818143356 -30.151065183732 0 0 0
23 3 9.04532217479479 -9.045313561603267 -30.151057543416194 0 0 0
25 1 15.075529183339064 -9.045306467103234 -30.151046680333238 0 0 0
28 5 -15.075525685966156 -3.01510333778765 -30.1510707209748 0 0 0
30 1 -9.045316952214023 -3.0151041303362085 -30.15103638878511 0 0 0
32 4 -3.0151068270839154 -3.0151075897799693 -30.15105370545579 0 0 0
34 7 3.015103345235353 -3.015101569664843 -30.15105461286022 0 0 0
36 1 9.045326242092287 -3.015102246647153 -30.151061482615248 0 0 0
38 1 15.075520369141877 -3.015113732474635 -30.151068039574696 0 0 0
41 3 -15.075532073919328 3.01510362828747 -30.15106473208474 0 0 0
43 5 -9.045315816237842 3.0150975756597553 -30.151056353509986 0 0 0
45 3 -3.0151045508949217 3.0151041504689537 -30.151041821439748 0 0 0
47 8 3.0151003620510863 3.015119070171014 -30.15106025326203 0 0 0
49 4 9.045317290288011 3.0151044395120508 -30.15106147297223 0 0 0
51 3 15.075521019667107 3.015106046651649 -30.151069062980618 0 0 0
54 4 -15.07552859615485 9.045320386031442 -30.151047297587276 0 0 0
56 4 -9.045318524552862 9.045319312486875 -30.15104749702384 0 0 0
58 1 -3.015092876998942 9.04531639727869 -30.151036050421617 0 0 0
60 8 3.0151018169575856 9.045300250610964 -30.15105948606586 0 0 0
62 5 9.04531738705547 9.045309261585672 -30.15106603706692 0 0 0
64 6 15.075523748014824 9.045313135008467 -30.15106119846473 0 0 0
67 2 -15.075543120803626 15.075531355348225 -30.151054661783732 0 0 0
69 3 -9.045322397986125 15.075530802119694 -30.15104364580681 0 0 0
71 3 -3.0151048302810466 15.075525473222918 -30.15105091411135 0 0 0
73 1 3.015103292760415 15.075515427782783 -30.151036934019828 0 0 0
75 3 9.045316386408967 15.075528665238586 -30.151053385815253 0 0 0
77 1 15.07553437854714 15.075529816842632 -30.151043330023718 0 0 0
86 8 -18.08187858465148 -18.082272854180378 -24.120856423398873 0 0 0
88 3 -12.06042259493326 -18.085475492227687 -24.120829610060472 0 0 0
90 3 -6.030213067867326 -18.090341685062562 -24.120839852892978 0 0 0
92 3 -3.136419213234376e-06 -18.09051070024837 -24.120842893642198 0 0 0
94 4 6.030214396128034 -18.090456785395457 -24.12084119933128 0 0 0
96 1 12.060426136234845 -18.086552312657 -24.12085007278706 0 0 0
98 7 18.0822976102465 -18.086402030556254 -24.1208456071302 0 0 0
99 4 -18.09055493298691 -12.060419640980065 -24.120854313145024 0 0 0
101 2 -12.060410063210657 -12.060428164397104 -24.120836397747723 0 0 0
103 1 -6.030223766798935 -12.060422436534052 -24.12084263245078 0 0 0
105 5 -6.33753828793715e-06 -12.060424244618591 -24.120850291204523 0 0 0
107 4 6.0302151922755804 -12.060421908448703 -24.120843149669568 0 0 0
109 4 12.060423400658756 -12.060417681942639 -24.12084050648027 0 0 0
111 4 18.090556337903465 -12.060415900457892 -24.12084536205262 0 0 0
112 3 -18.087693339809178 -6.030215967698407 -24.120848783952447 0 0 0
114 5 -12.060418221904143 -6.030213021985755 -24.120850142928745 0 0 0
127 4 -12.06041519036413 -5.268354207998982e-06 -24.120845145349058 0 0 0
116 1 -6.030216102822635 -6.030206710215307 -24.12084329081446 0 0 0
129 1 -6.030213290952942 -5.673943263673209e-06 -24.120842271010154 0 0 0
118 3 6.989354695008387e-07 -6.030207365509501 -24.12084763348523 0 0 0
120 4 6.030212474930536 -6.030206627215756 -24.120841535301516 0 0 0
133 1 6.030206805496935 -4.1022730137285635e-06 -24.120848787392706 0 0 0
122 4 12.060426847352844 -6.030214153071196 -24.120847227154734 0 0 0
135 3 12.06041923504645 -5.013525989028267e-06 -24.120858224604696 0 0 0
124 1 18.087685543280642 -6.030214502690399 -24.120851599335847 0 0 0
137 3 18.09043343372017 -3.7139490132176434e-06 -24.120852754632395 0 0 0
125 3 -18.09043488399913 1.3901200048849205e-06 -24.12085146579664 0 0 0
138 2 -18.085470933845432 6.030215320576964 -24.12085039767928 0 0 0
140 3 -12.06042398767616 6.030213076946335 -24.120845478534548 0 0 0
142 7 -6.030197994344661 6.030204198373564 -24.12083527806307 0 0 0
131 3 2.9695812315821968e-06 5.99213613838856e-06 -24.120840172970677 0 0 0
144 3 1.5762576062172684e-06 6.030212790210509 -24.120856021043245 0 0 0
146 4 6.0302035872805355 6.030209589545311 -24.120857406346282 0 0 0
148 7 12.06042610125482 6.030215192967386 -24.120848647356343 0 0 0
150 3 18.085477614938057 6.030214774158967 -24.120840749803165 0 0 0
151 5 -18.09021728660929 12.06042497854174 -24.120847009010518 0 0 0
153 8 -12.060417829067987 12.060439414110746 -24.120826487112396 0 0 0
155 5 -6.030204827243214 12.060422835882417 -24.12084116397375 0 0 0
157 2 -4.962479394521324e-06 12.060421238578737 -24.120829971116653 0 0 0
159 3 6.030197390779435 12.060422485074291 -24.120852052209507 0 0 0
161 4 12.060428102722277 12.060423604528665 -24.120839652853018 0 0 0
163 5 18.090216587404143 12.060425847627052 -24.120831246524215 0 0 0
164 5 -18.086570731109127 18.082667473676707 -24.12085259633157 0 0 0
165 2 -12.060421067992445 18.085467221079554 -24.120787178937384 0 0 0
166 5 -6.030212952997951 18.090343709189924 -24.120837480768586 0 0 0
167 4 1.5162178463867804e-06 18.090504667839305 -24.12083844161119 0 0 0
168 5 6.030206707811946 18.090451289394352 -24.12083946143658 0 0 0
169 5 12.060429731644696 18.086552894177487 -24.120843522026647 0 0 0
170 1 18.086169058634894 18.085988778923486 -24.12084593292461 0 0 0
87 4 -15.075518039259146 -15.075528112037773 -18.090630368883257 0 0 0
89 1 -9.045318917405167 -15.075531166569982 -18.090613141697084 0 0 0
91 3 -3.0151105367932445 -15.075529868051373 -18.090629480062294 0 0 0
93 3 3.015106685178335 -15.075534476744442 -18.090610120343516 0 0 0
95 5 9.04531444579867 -15.075532662798603 -18.09063121343236 0 0 0
97 3 15.075525239833823 -15.075527299610158 -18.090637072154852 0 0 0
100 6 -15.075519014885296 -9.045323135804283 -18.090633095237155 0 0 0
102 3 -9.045321122531481 -9.045323800138993 -18.09064263463006 0 0 0
104 3 -3.0151111619899034 -9.045316968936897 -18.090644382397397 0 0 0
106 4 3.015106241546313 -9.04531530751406 -18.09063329513869 0 0 0
108 1 9.045333390621487 -9.045313936177605 -18.09061346996097 0 0 0
110 8 15.075513029980321 -9.045310112785797 -18.090639201666374 0 0 0
113 5 -15.075526125171603 -3.0151107576359166 -18.09062818076753 0 0 0
115 2 -9.045315531950658 -3.0151078590078306 -18.09065486137106 0 0 0
117 5 -3.01511339906153 -3.0151004447907788 -18.09064631675283 0 0 0
119 1 3.015107767320657 -3.0150982611880437 -18.090648453532932 0 0 0
121 3 9.045312635465333 -3.0151047442804604 -18.090636436907552 0 0 0
123 3 15.075529424131062 -3.0151124793883923 -18.0906409260645 0 0 0
126 3 -15.075531030681464 3.015108892976418 -18.090641811245735 0 0 0
128 5 -9.045306927527317 3.015099068897456 -18.090641980331682 0 0 0
130 8 -3.015108566930998 3.015110254783508 -18.09064689370761 0 0 0
132 3 3.0151046383910938 3.015101892374716 -18.090644398500913 0 0 0
134 6 9.045313046476402 3.0151029432590946 -18.090629550795242 0 0 0
136 4 15.075526857618385 3.0151076272378035 -18.09063379010316 0 0 0
139 4 -15.075530228327562 9.045321476095946 -18.090639853567986 0 0 0
141 4 -9.045318367408719 9.045320659050006 -18.09063975489116 0 0 0
143 6 -3.015100908755599 9.045318570946307 -18.09064987047449 0 0 0
145 6 3.015098672187463 9.04532275164961 -18.09064846279476 0 0 0
147 4 9.045318366196472 9.045315758720065 -18.090631108828152 0 0 0
149 1 15.075530225169771 9.045325783474112 -18.09063264238178 0 0 0
152 4 -15.075520725901923 15.075527184708449 -18.09063772817207 0 0 0
154 6 -9.04532585724719 15.075535750866443 -18.090633979410082 0 0 0
156 1 -3.015105696930142 15.075527875687499 -18.090627444047882 0 0 0
158 1 3.015099433377223 15.075528097050217 -18.090647583560674 0 0 0
160 6 9.045317025116098 15.075528898060078 -18.090632549884543 0 0 0
162 1 15.07553220423663 15.075520834992105 -18.090644110146727 0 0 0
171 3 -18.09051295441238 -18.090518376157437 -12.060419998501441 0 0 0
173 8 -12.060407395362807 -18.004495051107646 -12.060412271917915 0 0 0
175 1 -6.03022713268536 -18.058380449776994 -12.060410160645628 0 0 0
177 1 2.104096498811714e-06 -18.08769031278221 -12.060413622378512 0 0 0
179 8 6.030203116722404 -18.084840145325277 -12.06041837052982 0 0 0
181 4 12.06042103656268 -18.090510827169034 -12.06042196686925 0 0 0
183 4 18.090515537885835 -18.090460317713283 -12.060417129425886 0 0 0
184 7 -18.090454728694237 -12.060418307259699 -12.060421575350208 0 0 0
186 8 -12.060423393870328 -12.060439783875166 -12.060447262354103 0 0 0
188 3 -6.030219499386993 -12.060430273426723 -12.060418057935507 0 0 0
190 3 2.994648028220581e-06 -12.060429735511024 -12.06041086686082 0 0 0
192 4 6.030211781338551 -12.060424693813182 -12.060414135767108 0 0 0
194 3 12.060423708005949 -12.06041386521055 -12.06042183866414 0 0 0
196 4 18.090458698197196 -12.06041945371275 -12.060423978092349 0 0 0
197 1 -18.088752739766104 -6.03021537454455 -12.060432021710746 0 0 0
210 3 -18.09024160392257 -2.4282950157328287e-06 -12.060421871802646 0 0 0
199 5 -12.06042115420042 -6.030211362891 -12.060424257853349 0 0 0
212 4 -12.06041898494745 -3.840346881389678e-06 -12.060424769979083 0 0 0
201 4 -6.030213710642096 -6.03020761421228 -12.060430704132706 0 0 0
203 4 6.821712972282512e-07 -6.0302083528827595 -12.060422488497885 0 0 0
205 4 6.030215910361516 -6.030210404596071 -12.060421689113461 0 0 0
207 7 12.060416914680488 -6.030223507595327 -12.060427454909544 0 0 0
209 4 18.08876060939579 -6.030214726647568 -12.060431781265745 0 0 0
222 6 18.09024247960292 -1.718960518815038e-06 -12.060423160877402 0 0 0
223 4 -18.090513723864763 6.030213998078249 -12.060426795994406 0 0 0
225 4 -12.060421425725206 6.030210832286116 -12.060421654620644 0 0 0
214 3 -6.03020947386244 2.3201472032496895e-07 -12.060443020731899 0 0 0
216 4 -2.1924739428413886e-06 1.6326774066044436e-06 -12.060430055169807 0 0 0
227 3 -6.030205144298023 6.030206928444347 -12.060425739863572 0 0 0
229 5 -2.1727954084838075e-06 6.030209702119944 -12.060427685201638 0 0 0
218 3 6.0302161273040475 6.067789755093145e-07 -12.060416512045474 0 0 0
231 5 6.030213400283021 6.030208483620065 -12.060399763183096 0 0 0
220 4 12.060415208204944 1.394764925777281e-06 -12.06040879504711 0 0 0
233 5 12.060417401361736 6.030209802298991 -12.060416051958025 0 0 0
235 3 18.09051066823207 6.030218392346338 -12.060430392211032 0 0 0
236 2 -18.011551563497395 12.060426696395538 -12.060432293490035 0 0 0
238 6 -12.060424732783156 12.060429727598297 -12.06043055064793 0 0 0
240 6 -6.030207645695214 12.060429238444172 -12.060422928222184 0 0 0
242 4 1.1109698903055687e-06 12.060423369071941 -12.060431030601809 0 0 0
244 4 6.030207193407399 12.060421288941807 -12.060421976740805 0 0 0
246 7 12.060435184250736 12.060421436479103 -12.060431409513612 0 0 0
248 2 18.011545497747036 12.060424744503766 -12.06042359584183 0 0 0
249 4 -18.090458736827955 18.090514432167552 -12.060422620985289 0 0 0
250 2 -12.060403998287839 18.004510546563083 -12.060420394488258 0 0 0
251 1 -6.0302249479916235 18.058383736393928 -12.06040709070334 0 0 0
252 3 -1.3614491258806538e-06 18.087694244288613 -12.060429598688405 0 0 0
253 3 6.030206904576659 18.08484357415682 -12.060421254004204 0 0 0
254 3 12.060423117173471 18.09050969180595 -12.060430204600188 0 0 0
255 5 18.090461479724496 18.090455768636794 -12.060430829025552 0 0 0
172 5 -15.07551764734074 -15.075534330036506 -6.030221458020435 0 0 0
174 1 -9.045319393676433 -15.07553809063609 -6.030211948985027 0 0 0
258 7 -12.060414609113025 -18.083182838940342 -1.5250956799661708e-05 0 0 0
176 6 -3.015109949417784 -15.075529190218138 -6.0302118611987865 0 0 0
260 4 -6.030216658167625 -18.08732389264032 -1.6267441083073209e-06 0 0 0
178 8 3.015102683242379 -15.07552627974166 -6.030183903667357 0 0 0
262 5 4.166529929960916e-06 -18.09034229959101 -1.340056680021462e-05 0 0 0
264 5 6.03020511970799 -18.083519210857563 -1.6942049320789465e-05 0 0 0
180 4 9.04531231687076 -15.075526846635032 -6.030211782616682 0 0 0
266 4 12.06042380801026 -18.09055701307595 -3.350149398784197e-06 0 0 0
182 1 15.075529558512784 -15.075522977846587 -6.030195229906951 0 0 0
185 5 -15.075519250212393 -9.045314155248334 -6.0302197529777715 0 0 0
269 3 -18.09043551112159 -12.06042570287681 -2.562955394580513e-06 0 0 0
187 4 -9.045320506405659 -9.045321887217897 -6.03020484356761 0 0 0
271 3 -12.060412111977717 -12.060426040490444 -7.274619292729767e-06 0 0 0
189 5 -3.0151076929842233 -9.045320249120623 -6.030194099946897 0 0 0
273 8 -6.030204460219872 -12.06042615007802 -2.127694283871051e-05 0 0 0
191 4 3.0151052745087057 -9.045317835760113 -6.030204748284625 0 0 0
275 3 2.6199084501854486e-07 -12.060425947043655 -9.639409604744742e-06 0 0 0
277 7 6.030212173301084 -12.06042623823553 -1.2801207688539762e-05 0 0 0
193 1 9.045323698407891 -9.045313433799047 -6.030212220769123 0 0 0
279 1 12.060420116454452 -12.060416609493675 -3.366691032624658e-07 0 0 0
195 5 15.075520342790973 -9.045320605605486 -6.030204996612497 0 0 0
198 5 -15.07552079419787 -3.0151116232185124 -6.0302009256347375 0 0 0
282 3 -18.090343422712685 -6.030211196434191 -3.1355928555854007e-06 0 0 0
200 3 -9.045323811976061 -3.0151073396133405 -6.030201822717338 0 0 0
284 8 -12.060422799578955 -6.030198139331073 -1.5605753347358586e-06 0 0 0
202 6 -3.015099524206292 -3.0151040885947538 -6.030196906861875 0 0 0
286 4 -6.030211874223754 -6.030212160932837 -2.331273236677589e-07 0 0 0
288 1 -3.517773372152533e-06 -6.030204091650976 -4.6419274468689764e-07 0 0 0
204 4 3.0151037341762574 -3.015104407042738 -6.030203988983864 0 0 0
290 3 6.030215860027322 -6.030210973822591 -7.68085320856926e-06 0 0 0
206 1 9.045318582856758 -3.0150981149730107 -6.03020053603673 0 0 0
208 4 15.07552331882058 -3.0151045038874855 -6.030206795185919 0 0 0
211 5 -15.075523678640579 3.015101378007568 -6.030196187085579 0 0 0
213 4 -9.04531437865099 3.015106196816838 -6.030197171585677 0 0 0
215 3 -3.015106666196182 3.0151074820727892 -6.03019739423452 0 0 0
312 2 -6.030215432970419 6.030220176893398 -9.546760736611759e-06 0 0 0
217 3 3.015109762172397 3.0151078191906358 -6.0301983798764525 0 0 0
303 7 6.030223068198463 7.973850507880798e-06 -1.3733468307464136e-05 0 0 0
219 8 9.04530899433999 3.0151000482394146 -6.030199387447723 0 0 0
221 4 15.075522094551161 3.015103801439153 -6.0302062664882 0 0 0
224 4 -15.075530121561282 9.045320945441972 -6.030214944853633 0 0 0
321 3 -18.09035099503905 12.060420119672507 -1.5730785847267725e-06 0 0 0
226 5 -9.04530757053544 9.045316835770524 -6.030195874087852 0 0 0
228 3 -3.0151102697119896 9.045314876380953 -6.030190741335531 0 0 0
230 1 3.015108275591139 9.045309002146823 -6.030183774292723 0 0 0
232 7 9.04531484264787 9.045309333403537 -6.030188706441187 0 0 0
234 4 15.075527777766126 9.045322558143368 -6.030212066373046 0 0 0
237 5 -15.075521630649487 15.075532312640988 -6.030222264041917 0 0 0
239 3 -9.045315266619909 15.075539608487595 -6.03020699421036 0 0 0
335 2 -12.060412817829063 18.08319238364315 -4.142077519020404e-05 0 0 0
241 6 -3.0151179764676286 15.075532377228946 -6.030206734351609 0 0 0
336 2 -6.0302262322766556 18.087314687175308 -9.203282367309384e-06 0 0 0
243 3 3.015108542586745 15.075530850554713 -6.030207164469303 0 0 0
338 2 6.03020233425876 18.083523562580197 -1.7099016410782042e-05 0 0 0
245 4 9.045315408275624 15.075527794202749 -6.030203278737737 0 0 0
247 3 15.075530351170329 15.075519054953638 -6.030218167366144 0 0 0
256 8 -18.033885812231265 -18.08691221695123 1.2301553667271037e-05 0 0 0
257 4 -15.075528112377231 -15.075532551609703 6.030201042867802 0 0 0
259 2 -9.04531918983707 -15.07554230862297 6.030183869729768 0 0 0
261 6 -3.0151156573185105 -15.075523447957567 6.030202606931994 0 0 0
263 3 3.015109260193892 -15.075525482313854 6.030206564697714 0 0 0
265 7 9.04531278874656 -15.075517489468906 6.030206937587522 0 0 0
268 1 18.033916268832677 -18.086559903816962 7.322049633273764e-06 0 0 0
267 4 15.075528400571947 -15.075524063832464 6.030200249312024 0 0 0
270 3 -15.075522076351577 -9.045310660507374 6.0302017278706685 0 0 0
272 4 -9.0453170756271 -9.04531867128754 6.030196837003821 0 0 0
274 4 -3.015106576798015 -9.045318648970397 6.030200197143543 0 0 0
276 3 3.0151066374889908 -9.045317253034927 6.030213863424699 0 0 0
278 5 9.04532461857158 -9.0453181734632 6.030214680809145 0 0 0
281 3 18.090425966700096 -12.060422647439498 3.4066811522848184e-06 0 0 0
280 8 15.075530985915108 -9.045319463719837 6.030202658520686 0 0 0
283 3 -15.075519511190711 -3.0151046672473854 6.0301984882009165 0 0 0
297 1 -12.060418710445177 -1.0014191246909832e-05 1.4588363413281513e-05 0 0 0
285 7 -9.045328721980729 -3.015103853960955 6.030188233450062 0 0 0
287 5 -3.015099826546269 -3.0150999147234963 6.030198147863189 0 0 0
289 4 3.0151041152295726 -3.015102491368573 6.030207127415913 0 0 0
292 3 12.06042112229898 -6.0302154638549865 6.758811572638024e-06 0 0 0
305 1 12.060413327580022 -6.251887505470677e-07 2.02650409946159e-05 0 0 0
291 5 9.045324058710811 -3.015100441356438 6.030224210757886 0 0 0
294 5 18.09034037745316 -6.030216346864329 1.123253557722137e-05 0 0 0
307 3 18.090509931041396 -1.5825040833306048e-08 7.558911775618071e-06 0 0 0
293 6 15.07551804420536 -3.0151059418837214 6.030227957744209 0 0 0
295 4 -18.090507909074198 2.7166030811542896e-06 7.290087637557008e-06 0 0 0
308 4 -18.0905085213132 6.0302100257860864 1.3016455305603358e-05 0 0 0
296 2 -15.075523118324682 3.0151155570917787 6.030232511544803 0 0 0
310 4 -12.060421959488483 6.0302063651240765 1.5077118334261286e-05 0 0 0
298 1 -9.045314661231275 3.0151038181413092 6.030206662783705 0 0 0
299 3 -6.030209273661722 8.542342751383103e-06 1.4820408829052667e-05 0 0 0
301 1 -2.001422945596687e-06 3.1777716102965314e-07 8.634447937083678e-06 0 0 0
314 3 -2.877026911818348e-06 6.030215858013634 2.5480056159210562e-05 0 0 0
300 2 -3.015105866073579 3.015117991755652 6.030223720385301 0 0 0
316 1 6.030213271750487 6.030213233428192 3.2180054461150576e-06 0 0 0
302 6 3.015102070120694 3.0151105650962826 6.03021511199568 0 0 0
318 3 12.060415336060146 6.030213132269619 1.2490571052126143e-05 0 0 0
304 3 9.045320069600496 3.0151066908000885 6.0302124537745385 0 0 0
320 3 18.09050831070826 6.030215223462907 1.5652398140275636e-05 0 0 0
306 5 15.075520840968885 3.0151085899236634 6.030233792265086 0 0 0
309 1 -15.075530359322165 9.045306637093848 6.0302396434009395 0 0 0
323 3 -12.060421420445536 12.060423363756492 4.586721168209351e-06 0 0 0
311 3 -9.045307543505995 9.045313140384543 6.0302025944962026 0 0 0
325 1 -6.030206979641434 12.060423086912067 6.152420709781836e-06 0 0 0
327 3 -1.2520564709461723e-06 12.06041127578252 1.774722059622036e-05 0 0 0
313 8 -3.015084803437105 9.045308715904874 6.030222449325969 0 0 0
329 4 6.030209189763113 12.060414492337124 6.236005596349514e-06 0 0 0
315 2 3.0150974154092545 9.04531128852809 6.030221674248885 0 0 0
331 1 12.060422134087837 12.060412517327826 6.556894646791989e-06 0 0 0
317 1 9.045318098587344 9.045309987533166 6.030224279131026 0 0 0
333 7 18.090341611256434 12.060416885343912 3.2743748477059853e-06 0 0 0
319 2 15.075523828300618 9.045323944263334 6.030209926790775 0 0 0
334 4 -18.090495688534297 18.086927436441236 5.272941031364553e-06 0 0 0
322 3 -15.075527600726094 15.075533707721434 6.030218073113332 0 0 0
324 5 -9.045309691083451 15.07553571253245 6.030198152023054 0 0 0
337 3 -7.269440658319581e-07 18.09034705981982 3.7446195619850187e-06 0 0 0
326 6 -3.0151087587872603 15.075527647610564 6.030223176386691 0 0 0
328 3 3.015101861521188 15.07552869087531 6.030221466495881 0 0 0
339 4 12.060421069537632 18.09055933333316 2.4671265919096186e-07 0 0 0
330 4 9.045314985035834 15.07552597603101 6.030202722149355 0 0 0
340 5 18.0904853026815 18.08655021800395 8.109819361834525e-06 0 0 0
332 6 15.075530701715579 15.075521686665972 6.030211464594899 0 0 0
341 5 -18.09040958253142 -18.08353320816061 12.060413605755258 0 0 0
343 4 -12.060419230378162 -18.090511938399594 12.060413525638644 0 0 0
345 3 -6.030210518840578 -18.08769353316152 12.060416886101443 0 0 0
347 4 -2.9564314303343053e-06 -18.087329819221715 12.060424741406983 0 0 0
349 6 6.030209116376522 -18.090074498814474 12.06041568573427 0 0 0
351 4 12.06042196057911 -18.090513060954123 12.060422396868432 0 0 0
353 3 18.0903708585912 -18.08769840821073 12.060418317747725 0 0 0
354 4 -18.090464630526974 -12.060421672645585 12.060421640891484 0 0 0
356 3 -12.060417400559649 -12.060425409267584 12.060414032380443 0 0 0
358 3 -6.030211261147555 -12.060429125038153 12.06041255391633 0 0 0
360 3 1.1493456710809369e-06 -12.060421517344004 12.06043214034925 0 0 0
362 1 6.030213137538695 -12.060417180565262 12.060439778364547 0 0 0
364 3 12.060423235259304 -12.060413002935801 12.060407409125546 0 0 0
366 7 18.09045347073196 -12.060414048106793 12.060405965523472 0 0 0
367 6 -18.090077220560566 -6.030210056363616 12.060420075273214 0 0 0
369 6 -12.060421997811453 -6.030210050429611 12.06040895839132 0 0 0
371 4 -6.030210923572945 -6.030210748169919 12.060420292324629 0 0 0
373 3 3.053526864249534e-06 -6.0302134847511155 12.060425442594912 0 0 0
375 3 6.0302150673233506 -6.030211142453956 12.060437276294621 0 0 0
377 2 12.06041361853044 -6.030197570864852 12.060421561460657 0 0 0
390 1 12.060417780902156 -8.305255256857436e-07 12.06040682161263 0 0 0
379 5 18.090066207473342 -6.0302136525630985 12.06040949829142 0 0 0
380 5 -18.086554622094845 6.617135856146206e-06 12.060412136905732 0 0 0
393 7 -18.086367463303837 6.030212095807155 12.06041551306948 0 0 0
382 3 -12.06042288470681 6.559781233761441e-06 12.060401523118138 0 0 0
395 3 -12.060426193140845 6.0302119195585995 12.06041419320779 0 0 0
384 5 -6.030209005042684 8.624248099664555e-06 12.060402105532631 0 0 0
397 3 -6.030205069612503 6.030211307044713 12.06039760437222 0 0 0
386 3 9.029075762612138e-07 9.744932192745637e-06 12.060420638433541 0 0 0
388 1 6.0302178949222025 3.8529339647652705e-06 12.060431634362537 0 0 0
399 1 5.794766241962179e-06 6.030216530613643 12.060420340820563 0 0 0
401 3 6.030209441346795 6.030219014383569 12.06042924362967 0 0 0
403 8 12.060429786917801 6.030194611128145 12.060422128601608 0 0 0
392 1 18.08654318732345 7.940128757155662e-06 12.06041097806417 0 0 0
405 1 18.086364314727604 6.03020986503919 12.060424246573028 0 0 0
406 5 -18.09006744620743 12.060423300976524 12.06043111501667 0 0 0
408 3 -12.06042549655432 12.060421098915914 12.060439079046432 0 0 0
410 3 -6.030206353476501 12.060422679718066 12.0604215478376 0 0 0
412 1 7.269638793161448e-07 12.060424632264802 12.060422896783564 0 0 0
414 3 6.030205776639793 12.060410318368888 12.060428013697333 0 0 0
416 3 12.060420713671 12.060406711927172 12.060413733641418 0 0 0
418 6 18.0900717035884 12.060417970602018 12.060412907422425 0 0 0
419 2 -18.03902558613902 18.083492741594185 12.06040129553621 0 0 0
420 3 -12.060423923397924 18.0905053180241 12.060426236017321 0 0 0
421 1 -6.0302009182723 18.087683322835076 12.060417389100223 0 0 0
422 2 -1.1938525659616062e-05 18.087305365942996 12.06041593971824 0 0 0
423 5 6.0302033764048275 18.09007282182678 12.060420978235385 0 0 0
424 3 12.060424662866069 18.090511088466272 12.060425908218697 0 0 0
425 1 18.039062853893036 18.087725818718354 12.060430905653092 0 0 0
342 5 -15.075528135947753 -15.075527335555993 18.09063390796471 0 0 0
344 3 -9.045313497189774 -15.075527096931442 18.090633130727063 0 0 0
346 1 -3.015106967519376 -15.075529624305318 18.090629036688227 0 0 0
348 4 3.015109608482234 -15.075520526151339 18.090635507107237 0 0 0
350 4 9.045310531159068 -15.075521593634056 18.090638999972427 0 0 0
352 3 15.075528208329757 -15.075528582466095 18.09063433633044 0 0 0
355 3 -15.075527359657332 -9.04531486517829 18.090634625387935 0 0 0
357 3 -9.045317170468948 -9.045316840084624 18.09063252290074 0 0 0
359 7 -3.0151003624374297 -9.04532047053355 18.09063461681923 0 0 0
361 1 3.0151129382217086 -9.045316068128324 18.090652970311886 0 0 0
363 5 9.045307050627144 -9.04531398055845 18.090635089375745 0 0 0
365 3 15.075523017217229 -9.045311966154033 18.09061528275008 0 0 0
368 4 -15.07552767034754 -3.015106515060719 18.090636498110968 0 0 0
370 4 -9.04531728478548 -3.015105681814614 18.090631059795086 0 0 0
372 4 -3.0151011267719134 -3.015102026588078 18.090637749021894 0 0 0
374 5 3.0151101883294693 -3.0151008877495684 18.090643850283044 0 0 0
376 1 9.045313291327687 -3.0151032592115428 18.09064625105495 0 0 0
378 4 15.075522016813181 -3.0151047716649693 18.09061826648051 0 0 0
381 5 -15.075531287333984 3.0151127196078242 18.090626585725573 0 0 0
383 3 -9.045316104177624 3.015108737804141 18.090626809277886 0 0 0
385 5 -3.0150944893916147 3.0151060194559207 18.090627593804008 0 0 0
387 1 3.01510561721258 3.015115763777313 18.09063011813719 0 0 0
389 3 9.045314222580956 3.015110408545624 18.090623677669306 0 0 0
391 4 15.075524747784982 3.0151077810034046 18.090614028931547 0 0 0
394 1 -15.075527896966099 9.045322238239375 18.09062374242513 0 0 0
396 1 -9.045322312475248 9.045322794850215 18.090632310841528 0 0 0
398 4 -3.0151009937435695 9.045316909567223 18.09062356219912 0 0 0